 TITLE = "FEWG 2D TRIANGULER MESH"
 VARIABLES = "x", "y","u_cal","u_ture"
 ZONE T="REFINED MESHES"   N=        1089 E=        2048    F=FEPOINT
    ET=TRIANGLE
  0.000000000000000E+000   1.00000000000000       0.000000000000000E+000
  0.000000000000000E+000
  3.124999813735485E-002   1.00000000000000       0.000000000000000E+000
  0.000000000000000E+000
  6.249999627470970E-002   1.00000000000000       2.146407432216182E-009
  0.000000000000000E+000
  9.374999254941940E-002   1.00000000000000       0.000000000000000E+000
  0.000000000000000E+000
  0.124999992549419        1.00000000000000       4.241883162650964E-009
  0.000000000000000E+000
  0.156249985098839        1.00000000000000       0.000000000000000E+000
  0.000000000000000E+000
  0.187499985098839        1.00000000000000       5.813489960477050E-009
  0.000000000000000E+000
  0.218749985098839        1.00000000000000       0.000000000000000E+000
  0.000000000000000E+000
  0.249999985098839        1.00000000000000       6.861227825694441E-009
  0.000000000000000E+000
  0.281249970197678        1.00000000000000       0.000000000000000E+000
  0.000000000000000E+000
  0.312499970197678        1.00000000000000       7.385096758303136E-009
  0.000000000000000E+000
  0.343749970197678        1.00000000000000       0.000000000000000E+000
  0.000000000000000E+000
  0.374999970197678        1.00000000000000       7.385096758303136E-009
  0.000000000000000E+000
  0.406249970197678        1.00000000000000       0.000000000000000E+000
  0.000000000000000E+000
  0.437499970197678        1.00000000000000       6.861227825694441E-009
  0.000000000000000E+000
  0.468749970197678        1.00000000000000       0.000000000000000E+000
  0.000000000000000E+000
  0.499999970197678        1.00000000000000       5.813489960477050E-009
  0.000000000000000E+000
  0.531249940395355        1.00000000000000       0.000000000000000E+000
  0.000000000000000E+000
  0.562499940395355        1.00000000000000       4.241883162650964E-009
  0.000000000000000E+000
  0.593749940395355        1.00000000000000       0.000000000000000E+000
  0.000000000000000E+000
  0.624999940395355        1.00000000000000       2.146407432216182E-009
  0.000000000000000E+000
  0.656249940395355        1.00000000000000       0.000000000000000E+000
  0.000000000000000E+000
  0.687499940395355        1.00000000000000       0.000000000000000E+000
  0.000000000000000E+000
  0.718749940395355        1.00000000000000       0.000000000000000E+000
  0.000000000000000E+000
  0.749999940395355        1.00000000000000       0.000000000000000E+000
  0.000000000000000E+000
  0.781249940395355        1.00000000000000       0.000000000000000E+000
  0.000000000000000E+000
  0.812499940395355        1.00000000000000       0.000000000000000E+000
  0.000000000000000E+000
  0.843749940395355        1.00000000000000       0.000000000000000E+000
  0.000000000000000E+000
  0.874999940395355        1.00000000000000       0.000000000000000E+000
  0.000000000000000E+000
  0.906249940395355        1.00000000000000       0.000000000000000E+000
  0.000000000000000E+000
  0.937499940395355        1.00000000000000       0.000000000000000E+000
  0.000000000000000E+000
  0.968749940395355        1.00000000000000       0.000000000000000E+000
  0.000000000000000E+000
   1.00000000000000        1.00000000000000       0.000000000000000E+000
  0.000000000000000E+000
  0.000000000000000E+000  0.968750000000000       0.000000000000000E+000
  0.000000000000000E+000
  3.124999813735485E-002  0.968750000000000       2.903107001539854E-009
  9.164809652020266E-004
  6.249999627470970E-002  0.968750000000000       0.000000000000000E+000
  1.773834129835449E-003
  9.374999254941940E-002  0.968750000000000       4.823959754438403E-009
  2.572059448084472E-003
  0.124999992549419       0.968750000000000       0.000000000000000E+000
  3.311157057396484E-003
  0.156249985098839       0.968750000000000       6.220943574728258E-009
  3.991126704022456E-003
  0.187499985098839       0.968750000000000       0.000000000000000E+000
  4.611968712197261E-003
  0.218749985098839       0.968750000000000       7.094058462409417E-009
  5.173682912754878E-003
  0.249999985098839       0.968750000000000       0.000000000000000E+000
  5.676269305695307E-003
  0.281249970197678       0.968750000000000       7.443304417481880E-009
  6.119727693658179E-003
  0.312499970197678       0.968750000000000       0.000000000000000E+000
  6.504058499558569E-003
  0.343749970197678       0.968750000000000       7.268681439945648E-009
  6.829261497841772E-003
  0.374999970197678       0.968750000000000       0.000000000000000E+000
  7.095336688507787E-003
  0.406249970197678       0.968750000000000       6.570189529800721E-009
  7.302284071556615E-003
  0.437499970197678       0.968750000000000       0.000000000000000E+000
  7.450103646988255E-003
  0.468749970197678       0.968750000000000       5.347828687047099E-009
  7.538795414802708E-003
  0.499999970197678       0.968750000000000       0.000000000000000E+000
  7.568359374999973E-003
  0.531249940395355       0.968750000000000       3.601598911684781E-009
  7.538795583968642E-003
  0.562499940395355       0.968750000000000       0.000000000000000E+000
  7.450103985320203E-003
  0.593749940395355       0.968750000000000       1.331500203713767E-009
  7.302284579054578E-003
  0.624999940395355       0.968750000000000       0.000000000000000E+000
  7.095337365171765E-003
  0.656249940395355       0.968750000000000       0.000000000000000E+000
  6.829262343671764E-003
  0.687499940395355       0.968750000000000       0.000000000000000E+000
  6.504059514554576E-003
  0.718749940395355       0.968750000000000       0.000000000000000E+000
  6.119728877820200E-003
  0.749999940395355       0.968750000000000       0.000000000000000E+000
  5.676270433468637E-003
  0.781249940395355       0.968750000000000       0.000000000000000E+000
  5.173684181499886E-003
  0.812499940395355       0.968750000000000       0.000000000000000E+000
  4.611970121913948E-003
  0.843749940395355       0.968750000000000       0.000000000000000E+000
  3.991128254710822E-003
  0.874999940395355       0.968750000000000       0.000000000000000E+000
  3.311158579890509E-003
  0.906249940395355       0.968750000000000       0.000000000000000E+000
  2.572061097453008E-003
  0.937499940395355       0.968750000000000       4.583853160326085E-010
  1.773835807398320E-003
  0.968749940395355       0.968750000000000       4.583853160326085E-010
  9.164827097264440E-004
  0.999999940395355       0.968750000000000       0.000000000000000E+000
  1.804437380764634E-009
  0.000000000000000E+000  0.937500000000000       3.053456311006090E-004
  0.000000000000000E+000
  3.124999813735485E-002  0.937500000000000       1.674026426144699E-003
  1.773834126197471E-003
  6.249999627470970E-002  0.937500000000000       3.334010475884184E-003
  3.433227348068612E-003
  9.374999254941940E-002  0.937500000000000       4.880242362830962E-003
  4.978179576937688E-003
  0.124999992549419       0.937500000000000       6.312593496820073E-003
  6.408691078831904E-003
  0.156249985098839       0.937500000000000       7.630980138205424E-003
  7.724761362624109E-003
  0.187499985098839       0.937500000000000       8.835345897430916E-003
  8.926391055865665E-003
  0.218749985098839       0.937500000000000       9.925650742686205E-003
  1.001357983113847E-002
  0.249999985098839       0.937500000000000       1.090186531042414E-002
  1.098632768844253E-002
  0.281249970197678       0.937500000000000       1.176396753575277E-002
  1.184463424579002E-002
  0.312499970197678       0.937500000000000       1.251194095834075E-002
  1.258850032172626E-002
  0.343749970197678       0.937500000000000       1.314577251233511E-002
  1.321792547969375E-002
  0.374999970197678       0.937500000000000       1.366545208299012E-002
  1.373290971969249E-002
  0.406249970197678       0.937500000000000       1.407097204211339E-002
  1.413345304172248E-002
  0.437499970197678       0.937500000000000       1.436232676436375E-002
  1.441955544578372E-002
  0.468749970197678       0.937500000000000       1.453951237039827E-002
  1.459121693187621E-002
  0.499999970197678       0.937500000000000       1.460252659299489E-002
  1.464843749999995E-002
  0.531249940395355       0.937500000000000       1.455136865475680E-002
  1.459121725929415E-002
  0.562499940395355       0.937500000000000       1.438603917293449E-002
  1.441955610061975E-002
  0.593749940395355       0.937500000000000       1.410654027090581E-002
  1.413345402397660E-002
  0.624999940395355       0.937500000000000       1.371287564894787E-002
  1.373291102936471E-002
  0.656249940395355       0.937500000000000       1.320505074443800E-002
  1.321792711678406E-002
  0.687499940395355       0.937500000000000       1.258307297097820E-002
  1.258850228623466E-002
  0.718749940395355       0.937500000000000       1.184695209255811E-002
  1.184463653771652E-002
  0.749999940395355       0.937500000000000       1.099670078266669E-002
  1.098632987122962E-002
  0.781249940395355       0.937500000000000       1.003233546879060E-002
  1.001358228677397E-002
  0.812499940395355       0.937500000000000       8.953877639136444E-003
  8.926393784349576E-003
  0.843749940395355       0.937500000000000       7.761355934993251E-003
  7.724764363956430E-003
  0.874999940395355       0.937500000000000       6.454809644936050E-003
  6.408694025594533E-003
  0.906249940395355       0.937500000000000       5.034294815287106E-003
  4.978182769263886E-003
  0.937499940395355       0.937500000000000       3.499895386439016E-003
  3.433230594964490E-003
  0.968749940395355       0.937500000000000       1.851743469701044E-003
  1.773837502696343E-003
   1.00000000000000       0.937500000000000       3.990555300070374E-004
  0.000000000000000E+000
  0.000000000000000E+000  0.906250000000000       4.675682463574081E-004
  0.000000000000000E+000
  3.124999813735485E-002  0.906250000000000       2.475143900459233E-003
  2.572059482986333E-003
  6.249999627470970E-002  0.906250000000000       4.880242384104319E-003
  4.978179654699487E-003
  9.374999254941940E-002  0.906250000000000       7.120218941247968E-003
  7.218360386559647E-003
  0.124999992549419       0.906250000000000       9.194945001659917E-003
  9.292602064306260E-003
  0.156249985098839       0.906250000000000       1.110432673650340E-002
  1.120090397580496E-002
  0.187499985098839       0.906250000000000       1.284829581380381E-002
  1.294326703100522E-002
  0.218749985098839       0.906250000000000       1.442680094001180E-002
  1.451969075515079E-002
  0.249999985098839       0.906250000000000       1.583980305610460E-002
  1.593017514824167E-002
  0.281249970197678       0.906250000000000       1.708727207268848E-002
  1.717471965639553E-002
  0.312499970197678       0.906250000000000       1.816918515116798E-002
  1.825332546650308E-002
  0.343749970197678       0.906250000000000       1.908552389955306E-002
  1.916599194555594E-002
  0.374999970197678       0.906250000000000       1.983627397626654E-002
  1.991271909355411E-002
  0.406249970197678       0.906250000000000       2.042142449596713E-002
  2.049350691049760E-002
  0.437499970197678       0.906250000000000       2.084096740261069E-002
  2.090835539638639E-002
  0.468749970197678       0.906250000000000       2.109489713448757E-002
  2.115726455122050E-002
  0.499999970197678       0.906250000000000       2.118321044168829E-002
  2.124023437499992E-002
  0.531249940395355       0.906250000000000       2.110590625327999E-002
  2.115726502597651E-002
  0.562499940395355       0.906250000000000       2.086298550360733E-002
  2.090835634589864E-002
  0.593749940395355       0.906250000000000       2.045445130216944E-002
  2.049350833476607E-002
  0.624999940395355       0.906250000000000       1.988030905835943E-002
  1.991272099257882E-002
  0.656249940395355       0.906250000000000       1.914056666772979E-002
  1.916599431933689E-002
  0.687499940395355       0.906250000000000       1.823523483968934E-002
  1.825332831504026E-002
  0.718749940395355       0.906250000000000       1.716432758769638E-002
  1.717472297968895E-002
  0.749999940395355       0.906250000000000       1.592786294482988E-002
  1.593017831328295E-002
  0.781249940395355       0.906250000000000       1.452586401033279E-002
  1.451969431582226E-002
  0.812499940395355       0.906250000000000       1.295836049774191E-002
  1.294327098730689E-002
  0.843749940395355       0.906250000000000       1.122539106117805E-002
  1.120090832773682E-002
  0.874999940395355       0.906250000000000       9.327006842442207E-003
  9.292606337112073E-003
  0.906249940395355       0.906250000000000       7.263276907951339E-003
  7.218365015432635E-003
  0.937499940395355       0.906250000000000       5.034296410525083E-003
  4.978184362698510E-003
  0.968749940395355       0.906250000000000       2.640197407137157E-003
  2.572064378909698E-003
  0.999999940395355       0.906250000000000       5.546055834089062E-004
  5.064066197629780E-009
  0.000000000000000E+000  0.875000000000000       6.180539724943580E-004
  0.000000000000000E+000
  3.124999813735485E-002  0.875000000000000       3.217519985681799E-003
  3.311157035568612E-003
  6.249999627470970E-002  0.875000000000000       6.312593496166559E-003
  6.408691049728075E-003
  9.374999254941940E-002  0.875000000000000       9.194944965213631E-003
  9.292601876950350E-003
  0.124999992549419       0.875000000000000       1.186445587540425E-002
  1.196289001381955E-002
  0.156249985098839       0.875000000000000       1.432103234773047E-002
  1.441955454356500E-002
  0.187499985098839       0.875000000000000       1.656460161254128E-002
  1.666259663761591E-002
  0.218749985098839       0.875000000000000       1.859510625697413E-002
  1.869201568479182E-002
  0.249999985098839       0.875000000000000       2.041250095560460E-002
  2.050781168509272E-002
  0.281249970197678       0.875000000000000       2.201674987877577E-002
  2.210998392547471E-002
  0.312499970197678       0.875000000000000       2.340782533193065E-002
  2.349853393388902E-002
  0.343749970197678       0.875000000000000       2.458570464547577E-002
  2.467346089542834E-002
  0.374999970197678       0.875000000000000       2.555036997238362E-002
  2.563476481009265E-002
  0.406249970197678       0.875000000000000       2.630180766473746E-002
  2.638244567788196E-002
  0.437499970197678       0.875000000000000       2.684000757075289E-002
  2.691650349879628E-002
  0.468749970197678       0.875000000000000       2.716496266205688E-002
  2.723693827283559E-002
  0.499999970197678       0.875000000000000       2.727666882672860E-002
  2.734374999999990E-002
  0.531249940395355       0.875000000000000       2.717512474195452E-002
  2.723693888401574E-002
  0.562499940395355       0.875000000000000       2.686033162214184E-002
  2.691650472115686E-002
  0.593749940395355       0.875000000000000       2.633229344492291E-002
  2.638244751142299E-002
  0.624999940395355       0.875000000000000       2.559101711676262E-002
  2.563476725481412E-002
  0.656249940395355       0.875000000000000       2.463651266089585E-002
  2.467346395133024E-002
  0.687499940395355       0.875000000000000       2.346879359234516E-002
  2.349853760097137E-002
  0.718749940395355       0.875000000000000       2.208787745846683E-002
  2.210998820373750E-002
  0.749999940395355       0.875000000000000       2.049378660538619E-002
  2.050781575962862E-002
  0.781249940395355       0.875000000000000       1.868654925597299E-002
  1.869202026864475E-002
  0.812499940395355       0.875000000000000       1.666620102280373E-002
  1.666260173078588E-002
  0.843749940395355       0.875000000000000       1.443278702573449E-002
  1.441956014605200E-002
  0.874999940395355       0.875000000000000       1.198636482285641E-002
  1.196289551444313E-002
  0.906249940395355       0.875000000000000       9.327008338894764E-003
  9.292607835959255E-003
  0.937499940395355       0.875000000000000       6.454812722950154E-003
  6.408697110600381E-003
  0.968749940395355       0.875000000000000       3.369898593625700E-003
  3.311163338366507E-003
   1.00000000000000       0.875000000000000       6.984080756601172E-004
  0.000000000000000E+000
  0.000000000000000E+000  0.843750000000000       7.567878467928172E-004
  0.000000000000000E+000
  3.124999813735485E-002  0.843750000000000       3.901099173596164E-003
  3.991126783944309E-003
  6.249999627470970E-002  0.843750000000000       7.630980210036971E-003
  7.724761533154377E-003
  9.374999254941940E-002  0.843750000000000       1.110432679810864E-002
  1.120090404810980E-002
  0.124999992549419       0.843750000000000       1.432103248152339E-002
  1.441955492737178E-002
  0.156249985098839       0.843750000000000       1.728100786716559E-002
  1.738071306590424E-002
  0.187499985098839       0.843750000000000       1.998418027203012E-002
  2.008437987569775E-002
  0.218749985098839       0.843750000000000       2.243048987945381E-002
  2.253055462006156E-002
  0.249999985098839       0.843750000000000       2.461988791125166E-002
  2.471923729899569E-002
  0.281249970197678       0.843750000000000       2.655233485378110E-002
  2.665042705302755E-002
  0.312499970197678       0.843750000000000       2.822779962656259E-002
  2.832412572388409E-002
  0.343749970197678       0.843750000000000       2.964625634960380E-002
  2.974033232931094E-002
  0.374999970197678       0.843750000000000       3.080768443341740E-002
  3.089904686930810E-002
  0.406249970197678       0.843750000000000       3.171206800624068E-002
  3.180026934387558E-002
  0.437499970197678       0.843750000000000       3.235939519327006E-002
  3.244399975301337E-002
  0.468749970197678       0.843750000000000       3.274965774318470E-002
  3.283023809672147E-002
  0.499999970197678       0.843750000000000       3.288285081997024E-002
  3.295898437499988E-002
  0.531249940395355       0.843750000000000       3.275897289271919E-002
  3.283023883341182E-002
  0.562499940395355       0.843750000000000       3.237802541344052E-002
  3.244400122639443E-002
  0.593749940395355       0.843750000000000       3.174001309227044E-002
  3.180027155394735E-002
  0.624999940395355       0.843750000000000       3.084494408957922E-002
  3.089904981607059E-002
  0.656249940395355       0.843750000000000       2.969283018374422E-002
  2.974033601276413E-002
  0.687499940395355       0.843750000000000       2.828368715485568E-002
  2.832413014402799E-002
  0.718749940395355       0.843750000000000       2.661753531773247E-002
  2.665043220986216E-002
  0.749999940395355       0.843750000000000       2.469440025357109E-002
  2.471924221026664E-002
  0.781249940395355       0.843750000000000       2.251431379590557E-002
  2.253056014524144E-002
  0.812499940395355       0.843750000000000       2.007731533877937E-002
  2.008438601478655E-002
  0.843749940395355       0.843750000000000       1.738345353682831E-002
  1.738071981890197E-002
  0.874999940395355       0.843750000000000       1.443278843603471E-002
  1.441956155758770E-002
  0.906249940395355       0.843750000000000       1.122539396169145E-002
  1.120091123084374E-002
  0.937499940395355       0.843750000000000       7.761360407206869E-003
  7.724768838670102E-003
  0.968749940395355       0.843750000000000       4.040795330968466E-003
  3.991134381066772E-003
  0.999999940395355       0.843750000000000       8.304550434564271E-004
  7.858033754942761E-009
  0.000000000000000E+000  0.812500000000000       8.837617227603924E-004
  0.000000000000000E+000
  3.124999813735485E-002  0.812500000000000       4.525847239590985E-003
  4.611968728113424E-003
  6.249999627470970E-002  0.812500000000000       8.835345913069986E-003
  8.926391104978389E-003
  9.374999254941940E-002  0.812500000000000       1.284829578285802E-002
  1.294326690003799E-002
  0.124999992549419       0.812500000000000       1.656460163103836E-002
  1.666259680496295E-002
  0.156249985098839       0.812500000000000       1.998418010579547E-002
  2.008437954282268E-002
  0.187499985098839       0.812500000000000       2.310696097366177E-002
  2.320861674525073E-002
  0.218749985098839       0.812500000000000       2.593288438739340E-002
  2.603530756096003E-002
  0.249999985098839       0.812500000000000       2.846190016520227E-002
  2.856445198995058E-002
  0.281249970197678       0.812500000000000       3.069396675590356E-002
  3.079604903905406E-002
  0.312499970197678       0.812500000000000       3.262905095623782E-002
  3.273010083648828E-002
  0.343749970197678       0.812500000000000       3.426712464629966E-002
  3.436660624720375E-002
  0.374999970197678       0.812500000000000       3.560816521757629E-002
  3.570556527120047E-002
  0.406249970197678       0.812500000000000       3.665215510170441E-002
  3.674697790847845E-002
  0.437499970197678       0.812500000000000       3.739908107433763E-002
  3.749084415903767E-002
  0.468749970197678       0.812500000000000       3.784893390944967E-002
  3.793716402287814E-002
  0.499999970197678       0.812500000000000       3.800170818860810E-002
  3.808593749999986E-002
  0.531249940395355       0.812500000000000       3.785740221682887E-002
  3.793716487416478E-002
  0.562499940395355       0.812500000000000       3.741601763891621E-002
  3.749084586161135E-002
  0.593749940395355       0.812500000000000       3.667755975656393E-002
  3.674698046233917E-002
  0.624999940395355       0.812500000000000       3.564203773401874E-002
  3.570556867634823E-002
  0.656249940395355       0.812500000000000       3.430946472841669E-002
  3.436661050363855E-002
  0.687499940395355       0.812500000000000       3.267985825190006E-002
  3.273010594421012E-002
  0.718749940395355       0.812500000000000       3.075324065510137E-002
  3.079605499806294E-002
  0.749999940395355       0.812500000000000       2.852963976832824E-002
  2.856445766519701E-002
  0.781249940395355       0.812500000000000       2.600908972760720E-002
  2.603531394561233E-002
  0.812499940395355       0.812500000000000       2.319163200836574E-002
  2.320862383930890E-002
  0.843749940395355       0.812500000000000       2.007731666926526E-002
  2.008438734628672E-002
  0.874999940395355       0.812500000000000       1.666620375621506E-002
  1.666260446654579E-002
  0.906249940395355       0.812500000000000       1.295836470627097E-002
  1.294327520008610E-002
  0.937499940395355       0.812500000000000       8.953883393787266E-003
  8.926399546907673E-003
  0.968749940395355       0.812500000000000       4.652855323758144E-003
  4.611977507010492E-003
   1.00000000000000       0.812500000000000       9.507371060038816E-004
  0.000000000000000E+000
  0.000000000000000E+000  0.781250000000000       9.989705066096618E-004
  0.000000000000000E+000
  3.124999813735485E-002  0.781250000000000       5.091741349923119E-003
  5.173682868075956E-003
  6.249999627470970E-002  0.781250000000000       9.925650638397402E-003
  1.001357976520012E-002
  9.374999254941940E-002  0.781250000000000       1.442680072940015E-002
  1.451969043273492E-002
  0.124999992549419       0.781250000000000       1.859510605064713E-002
  1.869201564659305E-002
  0.156249985098839       0.781250000000000       2.243048941987254E-002
  2.253055397432032E-002
  0.187499985098839       0.781250000000000       2.593288407368419E-002
  2.603530724627486E-002
  0.218749985098839       0.781250000000000       2.910223149113368E-002
  2.920627450748722E-002
  0.249999985098839       0.781250000000000       3.193848144561267E-002
  3.204345575795738E-002
  0.281249970197678       0.781250000000000       3.444159155484318E-002
  3.454684988355423E-002
  0.312499970197678       0.781250000000000       3.661152748715706E-002
  3.671645927170160E-002
  0.343749970197678       0.781250000000000       3.844825969413024E-002
  3.855228264910678E-002
  0.374999970197678       0.781250000000000       3.995176418002789E-002
  4.005432001576976E-002
  0.406249970197678       0.781250000000000       4.112202215583903E-002
  4.122257137169057E-002
  0.437499970197678       0.781250000000000       4.195901939337146E-002
  4.205703671686918E-002
  0.468749970197678       0.781250000000000       4.246274592571744E-002
  4.255771605130561E-002
  0.499999970197678       0.781250000000000       4.263319588673411E-002
  4.272460937499985E-002
  0.531249940395355       0.781250000000000       4.247036745875676E-002
  4.255771700627459E-002
  0.562499940395355       0.781250000000000       4.197426243571093E-002
  4.205703862680760E-002
  0.593749940395355       0.781250000000000       4.114488657548455E-002
  4.122257423659842E-002
  0.624999940395355       0.781250000000000       3.998224980900358E-002
  4.005432383564705E-002
  0.656249940395355       0.781250000000000       3.848636632178364E-002
  3.855228742395350E-002
  0.687499940395355       0.781250000000000       3.665725487453503E-002
  3.671646500151776E-002
  0.718749940395355       0.781250000000000       3.449493921251916E-002
  3.454685656833983E-002
  0.749999940395355       0.781250000000000       3.199944858911075E-002
  3.204346212441972E-002
  0.781249940395355       0.781250000000000       2.917081840914696E-002
  2.920628166975742E-002
  0.812499940395355       0.781250000000000       2.600909098560636E-002
  2.603531520435293E-002
  0.843749940395355       0.781250000000000       2.251431637716186E-002
  2.253056272820625E-002
  0.874999940395355       0.781250000000000       1.868655322575107E-002
  1.869202424131739E-002
  0.906249940395355       0.781250000000000       1.452586943404101E-002
  1.451969974368634E-002
  0.937499940395355       0.781250000000000       1.003234241278918E-002
  1.001358923531310E-002
  0.968749940395355       0.781250000000000       5.206057626185852E-003
  5.173692716197668E-003
  0.999999940395355       0.781250000000000       1.059253915736356E-003
  1.018634005270358E-008
  0.000000000000000E+000  0.750000000000000       1.102410722456790E-003
  0.000000000000000E+000
  3.124999813735485E-002  0.750000000000000       5.598765374210396E-003
  5.676269203831906E-003
  6.249999627470970E-002  0.750000000000000       1.090186515499582E-002
  1.098632751381956E-002
  9.374999254941940E-002  0.750000000000000       1.583980277473261E-002
  1.593017464620060E-002
  0.124999992549419       0.750000000000000       2.041250066992939E-002
  2.050781145226209E-002
  0.156249985098839       0.750000000000000       2.461988734047324E-002
  2.471923636039715E-002
  0.187499985098839       0.750000000000000       2.846189974910449E-002
  2.856445137877013E-002
  0.218749985098839       0.750000000000000       3.193848136769072E-002
  3.204345545964311E-002
  0.249999985098839       0.750000000000000       3.504958274290981E-002
  3.515624860301610E-002
  0.281249970197678       0.750000000000000       3.779516147684453E-002
  3.790282958652808E-002
  0.312499970197678       0.750000000000000       4.017518283468263E-002
  4.028320102952404E-002
  0.343749970197678       0.750000000000000       4.218961647163245E-002
  4.229736153502001E-002
  0.374999970197678       0.750000000000000       4.383843751995676E-002
  4.394531110301597E-002
  0.406249970197678       0.750000000000000       4.512162637167503E-002
  4.522704973351194E-002
  0.437499970197678       0.750000000000000       4.603916809428332E-002
  4.614257742650790E-002
  0.468749970197678       0.750000000000000       4.659105218636416E-002
  4.669189418200387E-002
  0.499999970197678       0.750000000000000       4.677727245418271E-002
  4.687499999999983E-002
  0.531249940395355       0.750000000000000       4.659782699390695E-002
  4.669189522974126E-002
  0.562499940395355       0.750000000000000       4.605271770882557E-002
  4.614257952198320E-002
  0.593749940395355       0.750000000000000       4.514195069134047E-002
  4.522705287672513E-002
  0.624999940395355       0.750000000000000       4.386553642846246E-002
  4.394531529396706E-002
  0.656249940395355       0.750000000000000       4.222348982920575E-002
  4.229736677370899E-002
  0.687499940395355       0.750000000000000       4.021583049349246E-002
  4.028320731595092E-002
  0.718749940395355       0.750000000000000       3.784258303765051E-002
  3.790283692069285E-002
  0.749999940395355       0.750000000000000       3.510377749477268E-002
  3.515625558793478E-002
  0.781249940395355       0.750000000000000       3.199944978182789E-002
  3.204346331767671E-002
  0.812499940395355       0.750000000000000       2.852964221179267E-002
  2.856446010991864E-002
  0.843749940395355       0.750000000000000       2.469440400578126E-002
  2.471924596466057E-002
  0.874999940395355       0.750000000000000       2.049379172429474E-002
  2.050782088190251E-002
  0.906249940395355       0.750000000000000       1.592786948825028E-002
  1.593018486164444E-002
  0.937499940395355       0.750000000000000       1.099670880770686E-002
  1.098633790388637E-002
  0.968749940395355       0.750000000000000       5.700386752158371E-003
  5.676280008628298E-003
   1.00000000000000       0.750000000000000       1.155998359068448E-003
  0.000000000000000E+000
  0.000000000000000E+000  0.718750000000000       1.194079864989127E-003
  0.000000000000000E+000
  3.124999813735485E-002  0.718750000000000       6.046907455357677E-003
  6.119727735381274E-003
  6.249999627470970E-002  0.718750000000000       1.176396749902404E-002
  1.184463435083671E-002
  9.374999254941940E-002  0.718750000000000       1.708727195835045E-002
  1.717471954043502E-002
  0.124999992549419       0.718750000000000       2.201674981243165E-002
  2.210998422197007E-002
  0.156249985098839       0.718750000000000       2.655233452906337E-002
  2.665042670105317E-002
  0.187499985098839       0.718750000000000       3.069396664361050E-002
  3.079604914273654E-002