 TITLE = "FEWG 2D TRIANGULER MESH"
 VARIABLES = "x", "y","u_cal","u_ture"
 ZONE T="REFINED MESHES"   N=          81 E=         128    F=FEPOINT
    ET=TRIANGLE
  0.000000000000000E+000   1.00000000000000       0.000000000000000E+000
  0.000000000000000E+000
  0.124999992549419        1.00000000000000       0.000000000000000E+000
  0.000000000000000E+000
  0.249999985098839        1.00000000000000       6.402842509661832E-009
  0.000000000000000E+000
  0.374999970197678        1.00000000000000       0.000000000000000E+000
  0.000000000000000E+000
  0.499999970197678        1.00000000000000       6.402842509661832E-009
  0.000000000000000E+000
  0.624999940395355        1.00000000000000       0.000000000000000E+000
  0.000000000000000E+000
  0.749999940395355        1.00000000000000       0.000000000000000E+000
  0.000000000000000E+000
  0.874999940395355        1.00000000000000       0.000000000000000E+000
  0.000000000000000E+000
   1.00000000000000        1.00000000000000       0.000000000000000E+000
  0.000000000000000E+000
  0.000000000000000E+000  0.875000000000000       0.000000000000000E+000
  0.000000000000000E+000
  0.124999992549419       0.875000000000000       7.334165056521735E-009
  1.196289001381955E-002
  0.249999985098839       0.875000000000000       0.000000000000000E+000
  2.050781168509272E-002
  0.374999970197678       0.875000000000000       4.540197415942027E-009
  2.563476481009265E-002
  0.499999970197678       0.875000000000000       0.000000000000000E+000
  2.734374999999990E-002
  0.624999940395355       0.875000000000000       0.000000000000000E+000
  2.563476725481412E-002
  0.749999940395355       0.875000000000000       1.746229775362318E-009
  2.050781575962862E-002
  0.874999940395355       0.875000000000000       1.746229775362318E-009
  1.196289551444313E-002
  0.999999940395355       0.875000000000000       0.000000000000000E+000
  6.519257633730291E-009
  0.000000000000000E+000  0.750000000000000      -0.483140223418359     
  0.000000000000000E+000
  0.124999992549419       0.750000000000000      -0.640371354859522     
  2.050781145226209E-002
  0.249999985098839       0.750000000000000       2.514490034285594E-002
  3.515624860301610E-002
  0.374999970197678       0.750000000000000       0.236820755186798     
  4.394531110301597E-002
  0.499999970197678       0.750000000000000       0.206633063494966     
  4.687499999999983E-002
  0.624999940395355       0.750000000000000      -6.671621923534890E-002
  4.394531529396706E-002
  0.749999940395355       0.750000000000000      -0.244905167685849     
  3.515625558793478E-002
  0.874999940395355       0.750000000000000      -0.218183959381495     
  2.050782088190251E-002
   1.00000000000000       0.750000000000000      -6.311482689560376E-002
  0.000000000000000E+000
  0.000000000000000E+000  0.625000000000000      -0.236813106992922     
  0.000000000000000E+000
  0.124999992549419       0.625000000000000      -4.352959348790238E-002
  2.563476431532762E-002
  0.249999985098839       0.625000000000000       0.400683930289605     
  4.394531075377012E-002
  0.374999970197678       0.625000000000000       0.644552091837371     
  5.493163887876996E-002
  0.499999970197678       0.625000000000000       0.521227037102044     
  5.859374999999979E-002
  0.624999940395355       0.625000000000000      -0.225412725744820     
  5.493164411745882E-002
  0.749999940395355       0.625000000000000      -0.624250741054060     
  4.394531948491848E-002
  0.874999940395355       0.625000000000000      -0.533118064056418     
  2.563477610237813E-002
  0.999999940395355       0.625000000000000      -0.159496466287239     
  1.396983778656491E-008
  0.000000000000000E+000  0.500000000000000       7.657766291390550E-003
  0.000000000000000E+000
  0.124999992549419       0.500000000000000       0.390838268739823     
  2.734374860301612E-002
  0.249999985098839       0.500000000000000       0.658181814797007     
  4.687499813735480E-002
  0.374999970197678       0.500000000000000       0.738514214367067     
  5.859374813735463E-002
  0.499999970197678       0.500000000000000       0.222129501126743     
  6.249999999999978E-002
  0.624999940395355       0.500000000000000      -0.801762434081006     
  5.859375372528941E-002
  0.749999940395355       0.500000000000000       -1.50639798360326     
  4.687500745057971E-002
  0.874999940395355       0.500000000000000       -1.40376735611434     
  2.734376117587001E-002
   1.00000000000000       0.500000000000000      -0.412702646123111     
  0.000000000000000E+000
  0.000000000000000E+000  0.375000000000000       4.949916039976605E-002
  0.000000000000000E+000
  0.124999992549419       0.375000000000000       0.304889391149023     
  2.563476431532762E-002
  0.249999985098839       0.375000000000000       0.367149359250152     
  4.394531075377012E-002
  0.374999970197678       0.375000000000000       0.247742771473669     
  5.493163887876996E-002
  0.499999970197678       0.375000000000000      -0.251399732893482     
  5.859374999999979E-002
  0.624999940395355       0.375000000000000       -1.46215267883967     
  5.493164411745882E-002
  0.749999940395355       0.375000000000000       -2.04246392114941     
  4.394531948491848E-002
  0.874999940395355       0.375000000000000       -1.41915682156114     
  2.563477610237813E-002
  0.999999940395355       0.375000000000000      -0.263926949718506     
  1.396983778656491E-008
  0.000000000000000E+000  0.250000000000000       3.067255291248565E-002
  0.000000000000000E+000
  0.124999992549419       0.250000000000000       0.134962546356118     
  2.050781145226209E-002
  0.249999985098839       0.250000000000000       0.161619199730594     
  3.515624860301610E-002
  0.374999970197678       0.250000000000000       6.685593887373451E-002
  4.394531110301597E-002
  0.499999970197678       0.250000000000000      -0.194769090929471     
  4.687499999999983E-002
  0.624999940395355       0.250000000000000      -0.711724910392888     
  4.394531529396706E-002
  0.749999940395355       0.250000000000000      -0.878312336099336     
  3.515625558793478E-002
  0.874999940395355       0.250000000000000      -0.560877908993848     
  2.050782088190251E-002
   1.00000000000000       0.250000000000000      -0.108323445750460     
  0.000000000000000E+000
  0.000000000000000E+000  0.125000000000000       1.430959120328829E-002
  0.000000000000000E+000
  0.124999992549419       0.125000000000000       5.456636464081461E-002
  1.196289001381955E-002
  0.249999985098839       0.125000000000000       6.614286966934331E-002
  2.050781168509272E-002
  0.374999970197678       0.125000000000000       3.999995497361940E-002
  2.563476481009265E-002
  0.499999970197678       0.125000000000000       2.053982583917015E-002
  2.734374999999990E-002
  0.624999940395355       0.125000000000000      -7.449655490927123E-002
  2.563476725481412E-002
  0.749999940395355       0.125000000000000      -0.265104222408257     
  2.050781575962862E-002
  0.874999940395355       0.125000000000000      -0.192613173205385     
  1.196289551444313E-002
  0.999999940395355       0.125000000000000      -3.421116964772650E-002
  6.519257633730291E-009
  0.000000000000000E+000  0.000000000000000E+000  3.227905080976964E-003
  0.000000000000000E+000
  0.124999992549419       0.000000000000000E+000  1.073827716988215E-002
  0.000000000000000E+000
  0.249999985098839       0.000000000000000E+000  1.184198810341440E-002
  0.000000000000000E+000
  0.374999970197678       0.000000000000000E+000  6.710459394776098E-003
  0.000000000000000E+000
  0.499999970197678       0.000000000000000E+000 -1.106095423321161E-003
  0.000000000000000E+000
  0.624999940395355       0.000000000000000E+000 -2.822659426525712E-002
  0.000000000000000E+000
  0.749999940395355       0.000000000000000E+000 -4.475968235889592E-002
  0.000000000000000E+000
  0.874999940395355       0.000000000000000E+000 -2.687688632597725E-002
  0.000000000000000E+000
   1.00000000000000       0.000000000000000E+000 -1.518517245996804E-003
  0.000000000000000E+000
           1          10           2
          11           2          10
           2          11           3
          12           3          11
           3          12           4
          13           4          12
           4          13           5
          14           5          13
           5          14           6
          15           6          14
           6          15           7
          16           7          15
           7          16           8
          17           8          16
           8          17           9
          18           9          17
          10          19          11
          20          11          19
          11          20          12
          21          12          20
          12          21          13
          22          13          21
          13          22          14
          23          14          22
          14          23          15
          24          15          23
          15          24          16
          25          16          24
          16          25          17
          26          17          25
          17          26          18
          27          18          26
          19          28          20
          29          20          28
          20          29          21
          30          21          29
          21          30          22
          31          22          30
          22          31          23
          32          23          31
          23          32          24
          33          24          32
          24          33          25
          34          25          33
          25          34          26
          35          26          34
          26          35          27
          36          27          35
          28          37          29
          38          29          37
          29          38          30
          39          30          38
          30          39          31
          40          31          39
          31          40          32
          41          32          40
          32          41          33
          42          33          41
          33          42          34
          43          34          42
          34          43          35
          44          35          43
          35          44          36
          45          36          44
          37          46          38
          47          38          46
          38          47          39
          48          39          47
          39          48          40
          49          40          48
          40          49          41
          50          41          49
          41          50          42
          51          42          50
          42          51          43
          52          43          51
          43          52          44
          53          44          52
          44          53          45
          54          45          53
          46          55          47
          56          47          55
          47          56          48
          57          48          56
          48          57          49
          58          49          57
          49          58          50
          59          50          58
          50          59          51
          60          51          59
          51          60          52
          61          52          60
          52          61          53
          62          53          61
          53          62          54
          63          54          62
          55          64          56
          65          56          64
          56          65          57
          66          57          65
          57          66          58
          67          58          66
          58          67          59
          68          59          67
          59          68          60
          69          60          68
          60          69          61
          70          61          69
          61          70          62
          71          62          70
          62          71          63
          72          63          71
          64          73          65
          74          65          73
          65          74          66
          75          66          74
          66          75          67
          76          67          75
          67          76          68
          77          68          76
          68          77          69
          78          69          77
          69          78          70
          79          70          78
          70          79          71
          80          71          79
          71          80          72
          81          72          80
