 TITLE = "FEWG 2D TRIANGULER MESH"
 VARIABLES = "x", "y","u_cal","u_ture"
 ZONE T="REFINED MESHES"   N=         289 E=         512    F=FEPOINT
    ET=TRIANGLE
  0.000000000000000E+000   1.00000000000000       0.000000000000000E+000
  0.000000000000000E+000
  6.249999627470970E-002   1.00000000000000       0.000000000000000E+000
  0.000000000000000E+000
  0.124999992549419        1.00000000000000       3.929016994565215E-009
  0.000000000000000E+000
  0.187499985098839        1.00000000000000       0.000000000000000E+000
  0.000000000000000E+000
  0.249999985098839        1.00000000000000       6.722984635144924E-009
  0.000000000000000E+000
  0.312499970197678        1.00000000000000       0.000000000000000E+000
  0.000000000000000E+000
  0.374999970197678        1.00000000000000       7.421476545289851E-009
  0.000000000000000E+000
  0.437499970197678        1.00000000000000       0.000000000000000E+000
  0.000000000000000E+000
  0.499999970197678        1.00000000000000       6.024492724999997E-009
  0.000000000000000E+000
  0.562499940395355        1.00000000000000       0.000000000000000E+000
  0.000000000000000E+000
  0.624999940395355        1.00000000000000       2.532033174275361E-009
  0.000000000000000E+000
  0.687499940395355        1.00000000000000       0.000000000000000E+000
  0.000000000000000E+000
  0.749999940395355        1.00000000000000       0.000000000000000E+000
  0.000000000000000E+000
  0.812499940395355        1.00000000000000       0.000000000000000E+000
  0.000000000000000E+000
  0.874999940395355        1.00000000000000       0.000000000000000E+000
  0.000000000000000E+000
  0.937499940395355        1.00000000000000       0.000000000000000E+000
  0.000000000000000E+000
   1.00000000000000        1.00000000000000       0.000000000000000E+000
  0.000000000000000E+000
  0.000000000000000E+000  0.937500000000000       0.000000000000000E+000
  0.000000000000000E+000
  6.249999627470970E-002  0.937500000000000       5.093170178140094E-009
  3.433227348068612E-003
  0.124999992549419       0.937500000000000       0.000000000000000E+000
  6.408691078831904E-003
  0.187499985098839       0.937500000000000       7.188645908574876E-009
  8.926391055865665E-003
  0.249999985098839       0.937500000000000       0.000000000000000E+000
  1.098632768844253E-002
  0.312499970197678       0.937500000000000       7.188645908574876E-009
  1.258850032172626E-002
  0.374999970197678       0.937500000000000       0.000000000000000E+000
  1.373290971969249E-002
  0.437499970197678       0.937500000000000       5.093170178140094E-009
  1.441955544578372E-002
  0.499999970197678       0.937500000000000       0.000000000000000E+000
  1.464843749999995E-002
  0.562499940395355       0.937500000000000       0.000000000000000E+000
  1.441955610061975E-002
  0.624999940395355       0.937500000000000       0.000000000000000E+000
  1.373291102936471E-002
  0.687499940395355       0.937500000000000       0.000000000000000E+000
  1.258850228623466E-002
  0.749999940395355       0.937500000000000       0.000000000000000E+000
  1.098632987122962E-002
  0.812499940395355       0.937500000000000       0.000000000000000E+000
  8.926393784349576E-003
  0.874999940395355       0.937500000000000       9.022187172705309E-010
  6.408694025594533E-003
  0.937499940395355       0.937500000000000       9.022187172705309E-010
  3.433230594964490E-003
  0.999999940395355       0.937500000000000       0.000000000000000E+000
  3.492459446641227E-009
  0.000000000000000E+000  0.875000000000000       1.138134171293255E-003
  0.000000000000000E+000
  6.249999627470970E-002  0.875000000000000       6.026282384163946E-003
  6.408691049728075E-003
  0.124999992549419       0.875000000000000       1.157101220637387E-002
  1.196289001381955E-002
  0.187499985098839       0.875000000000000       1.627227011845509E-002
  1.666259663761591E-002
  0.249999985098839       0.875000000000000       2.012801885782484E-002
  2.050781168509272E-002
  0.312499970197678       0.875000000000000       2.313696748412836E-002
  2.349853393388902E-002
  0.374999970197678       0.875000000000000       2.529829290363015E-002
  2.563476481009265E-002
  0.437499970197678       0.875000000000000       2.661148272948530E-002
  2.691650349879628E-002
  0.499999970197678       0.875000000000000       2.707625320028939E-002
  2.734374999999990E-002
  0.562499940395355       0.875000000000000       2.669250896660298E-002
  2.691650472115686E-002
  0.624999940395355       0.875000000000000       2.546033022381523E-002
  2.563476725481412E-002
  0.687499940395355       0.875000000000000       2.337998476887639E-002
  2.349853760097137E-002
  0.749999940395355       0.875000000000000       2.045196869924238E-002
  2.050781575962862E-002
  0.812499940395355       0.875000000000000       1.667709226798177E-002
  1.666260173078588E-002
  0.874999940395355       0.875000000000000       1.205664816357262E-002
  1.196289551444313E-002
  0.937499940395355       0.875000000000000       6.592731502994015E-003
  6.408697110600381E-003
   1.00000000000000       0.875000000000000       1.454527054366505E-003
  0.000000000000000E+000
  0.000000000000000E+000  0.812500000000000       1.676913250963344E-003
  0.000000000000000E+000
  6.249999627470970E-002  0.812500000000000       8.563846241347900E-003
  8.926391104978389E-003
  0.124999992549419       0.812500000000000       1.627227012917284E-002
  1.666259680496295E-002
  0.187499985098839       0.812500000000000       2.280356623875810E-002
  2.320861674525073E-002
  0.249999985098839       0.812500000000000       2.815569736211458E-002
  2.856445198995058E-002
  0.312499970197678       0.812500000000000       3.232722485442208E-002
  3.273010083648828E-002
  0.374999970197678       0.812500000000000       3.531716288968059E-002
  3.570556527120047E-002
  0.437499970197678       0.812500000000000       3.712486974120466E-002
  3.749084415903767E-002
  0.499999970197678       0.812500000000000       3.774998213776136E-002
  3.808593749999986E-002
  0.562499940395355       0.812500000000000       3.719237975416319E-002
  3.749084586161135E-002
  0.624999940395355       0.812500000000000       3.545217340166591E-002
  3.570556867634823E-002
  0.687499940395355       0.812500000000000       3.252971749864179E-002
  3.273010594421012E-002
  0.749999940395355       0.812500000000000       2.842564807338439E-002
  2.856445766519701E-002
  0.812499940395355       0.812500000000000       2.314095418718960E-002
  2.320862383930890E-002
  0.874999940395355       0.812500000000000       1.667709500115842E-002
  1.666260446654579E-002
  0.937499940395355       0.812500000000000       9.036165560137534E-003
  8.926399546907673E-003
  0.999999940395355       0.812500000000000       1.940784372957162E-003
  9.080394561267191E-009
  0.000000000000000E+000  0.750000000000000       2.122848671083813E-003
  0.000000000000000E+000
  6.249999627470970E-002  0.750000000000000       1.064984489276114E-002
  1.098632751381956E-002
  0.124999992549419       0.750000000000000       2.012801868902666E-002
  2.050781145226209E-002
  0.187499985098839       0.750000000000000       2.815569712164898E-002
  2.856445137877013E-002
  0.249999985098839       0.750000000000000       3.473099061811971E-002
  3.515624860301610E-002
  0.312499970197678       0.750000000000000       3.985246044508937E-002
  4.028320102952404E-002
  0.374999970197678       0.750000000000000       4.351906459769320E-002
  4.394531110301597E-002
  0.437499970197678       0.750000000000000       4.573009884789002E-002
  4.614257742650790E-002
  0.499999970197678       0.750000000000000       4.648515615259755E-002
  4.687499999999983E-002
  0.562499940395355       0.750000000000000       4.578410213411163E-002
  4.614257952198320E-002
  0.624999940395355       0.750000000000000       4.362706624947319E-002
  4.394531529396706E-002
  0.687499940395355       0.750000000000000       4.001445172657696E-002
  4.028320731595092E-002
  0.749999940395355       0.750000000000000       3.494696287147600E-002
  3.515625558793478E-002
  0.812499940395355       0.750000000000000       2.842565051211701E-002
  2.856446010991864E-002
  0.874999940395355       0.750000000000000       2.045197380423532E-002
  2.050782088190251E-002
  0.937499940395355       0.750000000000000       1.102786097730787E-002
  1.098633790388637E-002
   1.00000000000000       0.750000000000000       2.334046131865006E-003
  0.000000000000000E+000
  0.000000000000000E+000  0.687500000000000       2.475705580489402E-003
  0.000000000000000E+000
  6.249999627470970E-002  0.687500000000000       1.228341519056264E-002
  1.258850027625158E-002
  0.124999992549419       0.687500000000000       2.313696729103738E-002
  2.349853395571698E-002
  0.187499985098839       0.687500000000000       3.232722457936485E-002
  3.273010053817411E-002
  0.249999985098839       0.687500000000000       3.985246043867531E-002
  4.028320152428927E-002
  0.312499970197678       0.687500000000000       4.571129240229489E-002
  4.615783451299629E-002
  0.374999970197678       0.687500000000000       4.990267858539892E-002
  5.035400230553913E-002
  0.437499970197678       0.687500000000000       5.242589434989139E-002
  5.287170330120697E-002
  0.499999970197678       0.687500000000000       5.328051368466929E-002
  5.371093749999981E-002
  0.562499940395355       0.687500000000000       5.246639583884222E-002
  5.287170570227241E-002
  0.624999940395355       0.687500000000000       4.998367963921940E-002
  5.035400710767059E-002
  0.687499940395355       0.687500000000000       4.583279006157474E-002
  4.615784171619376E-002
  0.749999940395355       0.687500000000000       4.001445393575921E-002
  4.028320952784194E-002
  0.812499940395355       0.687500000000000       3.252972209037170E-002
  3.273011054261511E-002
  0.874999940395355       0.687500000000000       2.337999191691460E-002
  2.349854476051329E-002
  0.937499940395355       0.687500000000000       1.256701281157699E-002
  1.258851218153646E-002
  0.999999940395355       0.687500000000000       2.634154440672011E-003
  1.280568463768450E-008
  0.000000000000000E+000  0.625000000000000       2.735361458337408E-003
  0.000000000000000E+000
  6.249999627470970E-002  0.625000000000000       1.346405208872409E-002
  1.373290939227445E-002
  0.124999992549419       0.625000000000000       2.529829235515611E-002
  2.563476431532762E-002
  0.187499985098839       0.625000000000000       3.531716210819790E-002
  3.570556422346266E-002
  0.249999985098839       0.625000000000000       4.351906398614781E-002
  4.394531075377012E-002
  0.312499970197678       0.625000000000000       4.990267788818382E-002
  5.035400128690505E-002
  0.374999970197678       0.625000000000000       5.446698235429852E-002
  5.493163887876996E-002
  0.437499970197678       0.625000000000000       5.721125269483756E-002
  5.767822178313488E-002
  0.499999970197678       0.625000000000000       5.813505762289105E-002
  5.859374999999979E-002
  0.562499940395355       0.625000000000000       5.723825433788600E-002
  5.767822440247899E-002
  0.624999940395355       0.625000000000000       5.452098525412963E-002
  5.493164411745882E-002
  0.687499940395355       0.625000000000000       4.998368167431785E-002
  5.035400914493865E-002
  0.749999940395355       0.625000000000000       4.362707043626465E-002
  4.394531948491848E-002
  0.812499940395355       0.625000000000000       3.545217985621715E-002
  3.570557513739830E-002
  0.874999940395355       0.625000000000000       2.546033906119473E-002
  2.563477610237813E-002
  0.937499940395355       0.625000000000000       1.365315730557065E-002
  1.373292237985796E-002
   1.00000000000000       0.625000000000000       2.841015024724751E-003
  0.000000000000000E+000
  0.000000000000000E+000  0.562500000000000       2.901746903513032E-003
  0.000000000000000E+000
  6.249999627470970E-002  0.562500000000000       1.419145553717437E-002
  1.441955486188817E-002
  0.124999992549419       0.562500000000000       2.661148170580077E-002
  2.691650253109400E-002
  0.187499985098839       0.562500000000000       3.712486829874227E-002
  3.749084243463580E-002
  0.249999985098839       0.562500000000000       4.573009743872396E-002
  4.614257629145863E-002
  0.312499970197678       0.562500000000000       5.242589274130072E-002
  5.287170135125030E-002
  0.374999970197678       0.562500000000000       5.721125174289025E-002
  5.767822082270846E-002
  0.437499970197678       0.562500000000000       6.008545498247873E-002
  6.056213287229162E-002
  0.499999970197678       0.562500000000000       6.104807116589629E-002
  6.152343749999978E-002
  0.562499940395355       0.562500000000000       6.009895720483534E-002
  6.056213562260294E-002
  0.624999940395355       0.562500000000000       5.723825631490709E-002
  5.767822632333176E-002
  0.687499940395355       0.562500000000000       5.246639978538872E-002
  5.287170960218558E-002
  0.749999940395355       0.562500000000000       4.578410810592635E-002
  4.614258545916440E-002
  0.812499940395355       0.562500000000000       3.719238780707061E-002
  3.749085389426822E-002
  0.874999940395355       0.562500000000000       2.669251915686136E-002
  2.691651490749704E-002
  0.937499940395355       0.562500000000000       1.428602474541614E-002
  1.441956849885086E-002
  0.999999940395355       0.562500000000000       2.954583389782083E-003
  1.466832967589315E-008
  0.000000000000000E+000  0.500000000000000       2.974823883801344E-003
  0.000000000000000E+000
  6.249999627470970E-002  0.500000000000000       1.446546172055958E-002
  1.464843668509274E-002
  0.124999992549419       0.500000000000000       2.707625168015790E-002
  2.734374860301612E-002
  0.187499985098839       0.500000000000000       3.774998001446526E-002
  3.808593517169351E-002
  0.249999985098839       0.500000000000000       4.648515391764141E-002
  4.687499813735480E-002
  0.312499970197678       0.500000000000000       5.328051113698716E-002
  5.371093470603205E-002
  0.374999970197678       0.500000000000000       5.813505566537102E-002
  5.859374813735463E-002
  0.437499970197678       0.500000000000000       6.104807012705529E-002
  6.152343656867720E-002
  0.499999970197678       0.500000000000000       6.201912354596445E-002
  6.249999999999978E-002
  0.562499940395355       0.500000000000000       6.104807284519258E-002
  6.152343936264426E-002
  0.624999940395355       0.500000000000000       5.813506122696452E-002
  5.859375372528941E-002
  0.687499940395355       0.500000000000000       5.328051915279708E-002
  5.371094308793456E-002
  0.749999940395355       0.500000000000000       4.648516348845069E-002
  4.687500745057971E-002
  0.812499940395355       0.500000000000000       3.774999134561781E-002
  3.808594681322486E-002
  0.874999940395355       0.500000000000000       2.707626428750829E-002
  2.734376117587001E-002
  0.937499940395355       0.500000000000000       1.446547411885042E-002
  1.464845053851516E-002
   1.00000000000000       0.500000000000000       2.974828760143062E-003
  0.000000000000000E+000
  0.000000000000000E+000  0.437500000000000       2.954576977187574E-003
  0.000000000000000E+000
  6.249999627470970E-002  0.437500000000000       1.428601247521637E-002
  1.441955486188817E-002
  0.124999992549419       0.437500000000000       2.669250675443688E-002
  2.691650253109400E-002
  0.187499985098839       0.437500000000000       3.719237666021142E-002
  3.749084243463580E-002
  0.249999985098839       0.437500000000000       4.578409869085298E-002
  4.614257629145863E-002
  0.312499970197678       0.437500000000000       5.246639190262610E-002
  5.287170135125030E-002
  0.374999970197678       0.437500000000000       5.723825085044777E-002
  5.767822082270846E-002
  0.437499970197678       0.437500000000000       6.009895453930238E-002
  6.056213287229162E-002
  0.499999970197678       0.437500000000000       6.104807117383767E-002
  6.152343749999978E-002
  0.562499940395355       0.437500000000000       6.008545766968270E-002
  6.056213562260294E-002
  0.624999940395355       0.437500000000000       5.721125722773746E-002
  5.767822632333176E-002
  0.687499940395355       0.437500000000000       5.242590063888028E-002
  5.287170960218558E-002
  0.749999940395355       0.437500000000000       4.573010686503320E-002
  4.614258545916440E-002
  0.812499940395355       0.437500000000000       3.712487945788429E-002
  3.749085389426822E-002
  0.874999940395355       0.437500000000000       2.661149411434321E-002
  2.691651490749704E-002
  0.937499940395355       0.437500000000000       1.419146776137909E-002
  1.441956849885086E-002
  0.999999940395355       0.437500000000000       2.901753243645572E-003
  1.466832967589315E-008
  0.000000000000000E+000  0.375000000000000       2.841010389675840E-003
  0.000000000000000E+000
  6.249999627470970E-002  0.375000000000000       1.365314570164602E-002
  1.373290939227445E-002
  0.124999992549419       0.375000000000000       2.546032725510550E-002
  2.563476431532762E-002
  0.187499985098839       0.375000000000000       3.545216924772786E-002
  3.570556422346266E-002
  0.249999985098839       0.375000000000000       4.362706147670378E-002
  4.394531075377012E-002
  0.312499970197678       0.375000000000000       4.998367417574637E-002
  5.035400128690505E-002
  0.374999970197678       0.375000000000000       5.452098006063284E-002
  5.493163887876996E-002
  0.437499970197678       0.375000000000000       5.723825180847086E-002
  5.767822178313488E-002
  0.499999970197678       0.375000000000000       5.813505763874511E-002
  5.859374999999979E-002
  0.562499940395355       0.375000000000000       5.721125526752545E-002
  5.767822440247899E-002
  0.624999940395355       0.375000000000000       5.446698758849305E-002
  5.493164411745882E-002
  0.687499940395355       0.375000000000000       4.990268541634686E-002
  5.035400914493865E-002
  0.749999940395355       0.375000000000000       4.351907296838674E-002
  4.394531948491848E-002
  0.812499940395355       0.375000000000000       3.531717274288310E-002
  3.570557513739830E-002
  0.874999940395355       0.375000000000000       2.529830418336487E-002
  2.563477610237813E-002
  0.937499940395355       0.375000000000000       1.346406372492894E-002
  1.373292237985796E-002
   1.00000000000000       0.375000000000000       2.735365962165272E-003
  0.000000000000000E+000
  0.000000000000000E+000  0.312500000000000       2.634148768611409E-003
  0.000000000000000E+000
  6.249999627470970E-002  0.312500000000000       1.256700205506067E-002
  1.258850027625158E-002
  0.124999992549419       0.312500000000000       2.337998109957804E-002
  2.349853395571698E-002
  0.187499985098839       0.312500000000000       3.252971237434832E-002
  3.273010053817411E-002
  0.249999985098839       0.312500000000000       4.001444573134558E-002
  4.028320152428928E-002
  0.312499970197678       0.312500000000000       4.583278319822494E-002
  4.615783451299629E-002
  0.374999970197678       0.312500000000000       4.998367489048976E-002
  5.035400230553913E-002
  0.437499970197678       0.312500000000000       5.246639352908790E-002
  5.287170330120697E-002
  0.499999970197678       0.312500000000000       5.328051370839069E-002
  5.371093749999981E-002
  0.562499940395355       0.312500000000000       5.242589672437882E-002
  5.287170570227241E-002
  0.624999940395355       0.312500000000000       4.990268339493602E-002
  5.035400710767059E-002
  0.687499940395355       0.312500000000000       4.571129930971367E-002
  4.615784171619376E-002
  0.749999940395355       0.312500000000000       3.985246867644589E-002
  4.028320952784194E-002
  0.812499940395355       0.312500000000000       3.232723433192956E-002
  3.273011054261511E-002
  0.874999940395355       0.312500000000000       2.313697812651239E-002
  2.349854476051329E-002
  0.937499940395355       0.312500000000000       1.228342580905942E-002
  1.258851218153646E-002
  0.999999940395355       0.312500000000000       2.475711035200524E-003
  1.280568463768450E-008
  0.000000000000000E+000  0.250000000000000       2.334042351783319E-003
  0.000000000000000E+000
  6.249999627470970E-002  0.250000000000000       1.102785172326569E-002
  1.098632751381956E-002
  0.124999992549419       0.250000000000000       2.045196437850214E-002
  2.050781145226209E-002
  0.187499985098839       0.250000000000000       2.842564204410225E-002
  2.856445137877013E-002
  0.249999985098839       0.250000000000000       3.494695572183161E-002
  3.515624860301610E-002
  0.312499970197678       0.250000000000000       4.001444574933086E-002
  4.028320102952404E-002
  0.374999970197678       0.250000000000000       4.362706211935662E-002
  4.394531110301597E-002
  0.437499970197678       0.250000000000000       4.578410012774361E-002
  4.614257742650790E-002
  0.499999970197678       0.250000000000000       4.648515618417507E-002
  4.687499999999983E-002
  0.562499940395355       0.250000000000000       4.573010094024562E-002
  4.614257952198320E-002
  0.624999940395355       0.250000000000000       4.351906880844342E-002
  4.394531529396706E-002
  0.687499940395355       0.250000000000000       3.985246648070032E-002
  4.028320731595092E-002
  0.749999940395355       0.250000000000000       3.473099781240378E-002
  3.515625558793478E-002
  0.812499940395355       0.250000000000000       2.815570564139798E-002
  2.856446010991864E-002
  0.874999940395355       0.250000000000000       2.012802815850800E-002
  2.050782088190251E-002
  0.937499940395355       0.250000000000000       1.064985421116339E-002
  1.098633790388637E-002
   1.00000000000000       0.250000000000000       2.122852188817373E-003
  0.000000000000000E+000
  0.000000000000000E+000  0.187500000000000       1.940780253867733E-003
  0.000000000000000E+000
  6.249999627470970E-002  0.187500000000000       9.036157874955247E-003
  8.926391104978389E-003
  0.124999992549419       0.187500000000000       1.667708734522936E-002
  1.666259680496295E-002
  0.187499985098839       0.187500000000000       2.314094731808697E-002
  2.320861674525073E-002
  0.249999985098839       0.187500000000000       2.842564227692858E-002
  2.856445198995058E-002
  0.312499970197678       0.187500000000000       3.252971265787882E-002
  3.273010083648828E-002
  0.374999970197678       0.187500000000000       3.545217006416350E-002
  3.570556527120047E-002
  0.437499970197678       0.187500000000000       3.719237813553231E-002
  3.749084415903767E-002
  0.499999970197678       0.187500000000000       3.774998217740273E-002
  3.808593749999986E-002
  0.562499940395355       0.187500000000000       3.712487146669964E-002
  3.749084586161135E-002
  0.624999940395355       0.187500000000000       3.531716632709692E-002
  3.570556867634823E-002
  0.687499940395355       0.187500000000000       3.232722976709821E-002
  3.273010594421012E-002
  0.749999940395355       0.187500000000000       2.815570321300450E-002
  2.856445766519701E-002
  0.812499940395355       0.187500000000000       2.280357316755514E-002
  2.320862383930890E-002
  0.874999940395355       0.187500000000000       1.627227781437895E-002
  1.666260446654579E-002
  0.937499940395355       0.187500000000000       8.563853696341446E-003
  8.926399546907673E-003
  0.999999940395355       0.187500000000000       1.676917008113013E-003
  9.080394561267191E-009
  0.000000000000000E+000  0.125000000000000       1.454524742025133E-003
  0.000000000000000E+000
  6.249999627470970E-002  0.125000000000000       6.592726149932848E-003
  6.408691049728075E-003
  0.124999992549419       0.125000000000000       1.205664269274768E-002
  1.196289001381955E-002
  0.187499985098839       0.125000000000000       1.667708735456588E-002
  1.666259663761591E-002
  0.249999985098839       0.125000000000000       2.045196455474564E-002
  2.050781168509272E-002
  0.312499970197678       0.125000000000000       2.337998131416736E-002
  2.349853393388902E-002
  0.374999970197678       0.125000000000000       2.546032785338263E-002
  2.563476481009265E-002
  0.437499970197678       0.125000000000000       2.669250782200685E-002
  2.691650349879628E-002
  0.499999970197678       0.125000000000000       2.707625324921744E-002
  2.734374999999990E-002
  0.562499940395355       0.125000000000000       2.661148400064291E-002
  2.691650472115686E-002
  0.624999940395355       0.125000000000000       2.529829539248257E-002
  2.563476725481412E-002
  0.687499940395355       0.125000000000000       2.313697102352759E-002
  2.349853760097137E-002
  0.749999940395355       0.125000000000000       2.012802306797305E-002
  2.050781575962862E-002
  0.812499940395355       0.125000000000000       1.627227510732236E-002
  1.666260173078588E-002
  0.874999940395355       0.125000000000000       1.157101774089570E-002
  1.196289551444313E-002
  0.937499940395355       0.125000000000000       6.026287832833983E-003
  6.408697110600381E-003
   1.00000000000000       0.125000000000000       1.138136091174763E-003
  0.000000000000000E+000
  0.000000000000000E+000  6.250000000000000E-002  8.756126696101004E-004
  0.000000000000000E+000
  6.249999627470970E-002  6.250000000000000E-002  3.699095829782505E-003
  3.433227348068612E-003
  0.124999992549419       6.250000000000000E-002  6.592726141631897E-003
  6.408691078831904E-003
  0.187499985098839       6.250000000000000E-002  9.036157874428420E-003
  8.926391055865665E-003
  0.249999985098839       6.250000000000000E-002  1.102785181040202E-002
  1.098632768844253E-002
  0.312499970197678       6.250000000000000E-002  1.256700216399249E-002
  1.258850032172626E-002
  0.374999970197678       6.250000000000000E-002  1.365314602411721E-002
  1.373290971969249E-002
  0.437499970197678       6.250000000000000E-002  1.428601304466778E-002
  1.441955544578372E-002
  0.499999970197678       6.250000000000000E-002  1.446546256642381E-002
  1.464843749999995E-002
  0.562499940395355       6.250000000000000E-002  1.419145677537237E-002
  1.441955610061975E-002
  0.624999940395355       6.250000000000000E-002  1.346405372134348E-002
  1.373291102936471E-002
  0.687499940395355       6.250000000000000E-002  1.228341719936687E-002
  1.258850228623466E-002
  0.749999940395355       6.250000000000000E-002  1.064984724792385E-002
  1.098632987122962E-002
  0.812499940395355       6.250000000000000E-002  8.563848915622592E-003
  8.926393784349576E-003
  0.874999940395355       6.250000000000000E-002  6.026285347045080E-003
  6.408694025594533E-003
  0.937499940395355       6.250000000000000E-002  3.038740429528642E-003
  3.433230594964490E-003
  0.999999940395355       6.250000000000000E-002  5.070489617706876E-004
  3.492459446641227E-009
  0.000000000000000E+000  0.000000000000000E+000  2.317424483999972E-004
  0.000000000000000E+000
  6.249999627470970E-002  0.000000000000000E+000  8.756126713624733E-004
  0.000000000000000E+000
  0.124999992549419       0.000000000000000E+000  1.454524742230913E-003
  0.000000000000000E+000
  0.187499985098839       0.000000000000000E+000  1.940780257792634E-003
  0.000000000000000E+000
  0.249999985098839       0.000000000000000E+000  2.334042377001181E-003
  0.000000000000000E+000
  0.312499970197678       0.000000000000000E+000  2.634148795801578E-003
  0.000000000000000E+000
  0.374999970197678       0.000000000000000E+000  2.841010471993638E-003
  0.000000000000000E+000
  0.437499970197678       0.000000000000000E+000  2.954577106844381E-003
  0.000000000000000E+000
  0.499999970197678       0.000000000000000E+000  2.974824073639878E-003
  0.000000000000000E+000
  0.562499940395355       0.000000000000000E+000  2.901747172890563E-003
  0.000000000000000E+000
  0.624999940395355       0.000000000000000E+000  2.735361814776634E-003
  0.000000000000000E+000
  0.687499940395355       0.000000000000000E+000  2.475706013355581E-003
  0.000000000000000E+000
  0.749999940395355       0.000000000000000E+000  2.122849173819354E-003
  0.000000000000000E+000
  0.812499940395355       0.000000000000000E+000  1.676913819476776E-003
  0.000000000000000E+000
  0.874999940395355       0.000000000000000E+000  1.138134809813084E-003
  0.000000000000000E+000
  0.937499940395355       0.000000000000000E+000  5.070484171434969E-004
  0.000000000000000E+000
   1.00000000000000       0.000000000000000E+000  2.647929107482407E-005
  0.000000000000000E+000
           1          18           2
          19           2          18
           2          19           3
          20           3          19
           3          20           4
          21           4          20
           4          21           5
          22           5          21
           5          22           6
          23           6          22
           6          23           7
          24           7          23
           7          24           8
          25           8          24
           8          25           9
          26           9          25
           9          26          10
          27          10          26
          10          27          11
          28          11          27
          11          28          12
          29          12          28
          12          29          13
          30          13          29
          13          30          14
          31          14          30
          14          31          15
          32          15          31
          15          32          16
          33          16          32
          16          33          17
          34          17          33
          18          35          19
          36          19          35
          19          36          20
          37          20          36
          20          37          21
          38          21          37
          21          38          22
          39          22          38
          22          39          23