 TITLE = "FEWG 2D TRIANGULER MESH"
 VARIABLES = "x", "y","u_cal","u_ture"
 ZONE T="REFINED MESHES"   N=          81 E=         128    F=FEPOINT
    ET=TRIANGLE
  0.000000000000000E+000   1.00000000000000       0.000000000000000E+000
  0.000000000000000E+000
  0.124999992549419        1.00000000000000       0.000000000000000E+000
  0.000000000000000E+000
  0.249999985098839        1.00000000000000       0.000000000000000E+000
  0.000000000000000E+000
  0.374999970197678        1.00000000000000       0.000000000000000E+000
  0.000000000000000E+000
  0.499999970197678        1.00000000000000       0.000000000000000E+000
  0.000000000000000E+000
  0.624999940395355        1.00000000000000       0.000000000000000E+000
  0.000000000000000E+000
  0.749999940395355        1.00000000000000       0.000000000000000E+000
  0.000000000000000E+000
  0.874999940395355        1.00000000000000       0.000000000000000E+000
  0.000000000000000E+000
   1.00000000000000        1.00000000000000       0.000000000000000E+000
  0.000000000000000E+000
  0.000000000000000E+000  0.875000000000000       0.000000000000000E+000
  0.000000000000000E+000
  0.124999992549419       0.875000000000000       3.512965164814931E-004
  1.431107374827436E-004
  0.249999985098839       0.875000000000000       7.386603442270928E-004
  4.205703401112256E-004
  0.374999970197678       0.875000000000000       1.050538857188197E-003
  6.571411668687644E-004
  0.499999970197678       0.875000000000000       1.144516653507609E-003
  7.476806640624947E-004
  0.624999940395355       0.875000000000000       9.844348904247961E-004
  6.571412922084901E-004
  0.749999940395355       0.875000000000000       6.335525574135387E-004
  4.205705072308721E-004
  0.874999940395355       0.875000000000000       2.471240356482156E-004
  1.431108690894835E-004
  0.999999940395355       0.875000000000000       4.250072009495067E-017
  4.250072009495067E-017
  0.000000000000000E+000  0.750000000000000       0.000000000000000E+000
  0.000000000000000E+000
  0.124999992549419       0.750000000000000       7.386602600370952E-004
  4.205703305615322E-004
  0.249999985098839       0.750000000000000       1.821991458057015E-003
  1.235961815837071E-003
  0.374999970197678       0.750000000000000       2.688555779614439E-003
  1.931190367940859E-003
  0.499999970197678       0.750000000000000       2.992905493167614E-003
  2.197265624999984E-003
  0.624999940395355       0.750000000000000       2.621840738424752E-003
  1.931190736286175E-003
  0.749999940395355       0.750000000000000       1.709975941926148E-003
  1.235962306964196E-003
  0.874999940395355       0.750000000000000       6.335528837540672E-004
  4.205707173241965E-004
   1.00000000000000       0.750000000000000       0.000000000000000E+000
  0.000000000000000E+000
  0.000000000000000E+000  0.625000000000000       0.000000000000000E+000
  0.000000000000000E+000
  0.124999992549419       0.625000000000000       1.050538708070908E-003
  6.571411415023943E-004
  0.249999985098839       0.625000000000000       2.688555730995080E-003
  1.931190337245424E-003
  0.374999970197678       0.625000000000000       4.016799744459461E-003
  3.017484949907592E-003
  0.499999970197678       0.625000000000000       4.505379113444833E-003
  3.433227539062476E-003
  0.624999940395355       0.625000000000000       3.977075341854670E-003
  3.017485525447148E-003
  0.749999940395355       0.625000000000000       2.621840896091159E-003
  1.931191104631555E-003
  0.874999940395355       0.625000000000000       9.844354272495212E-004
  6.571417458190570E-004
  0.999999940395355       0.625000000000000       1.951563677829368E-016
  1.951563677829368E-016
  0.000000000000000E+000  0.500000000000000       0.000000000000000E+000
  0.000000000000000E+000
  0.124999992549419       0.500000000000000       1.144516255900368E-003
  7.476805876649462E-004
  0.249999985098839       0.500000000000000       2.992904923092870E-003
  2.197265450377016E-003
  0.374999970197678       0.500000000000000       4.505378400713619E-003
  3.433227320783749E-003
  0.499999970197678       0.500000000000000       5.078461125667059E-003
  3.906249999999972E-003
  0.624999940395355       0.500000000000000       4.505379746969564E-003
  3.433227975619867E-003
  0.749999940395355       0.500000000000000       2.992906039187901E-003
  2.197266323491903E-003
  0.874999940395355       0.500000000000000       1.144517311710298E-003
  7.476812752430159E-004
   1.00000000000000       0.500000000000000       0.000000000000000E+000
  0.000000000000000E+000
  0.000000000000000E+000  0.375000000000000       0.000000000000000E+000
  0.000000000000000E+000
  0.124999992549419       0.375000000000000       9.844344593104195E-004
  6.571411415023941E-004
  0.249999985098839       0.375000000000000       2.621839903386841E-003
  1.931190337245424E-003
  0.374999970197678       0.375000000000000       3.977074160513856E-003
  3.017484949907592E-003
  0.499999970197678       0.375000000000000       4.505379048242783E-003
  3.433227539062476E-003
  0.624999940395355       0.375000000000000       4.016800956540744E-003
  3.017485525447148E-003
  0.749999940395355       0.375000000000000       2.688556707598395E-003
  1.931191104631555E-003
  0.874999940395355       0.375000000000000       1.050539687457672E-003
  6.571417458190570E-004
  0.999999940395355       0.375000000000000       1.951563677829368E-016
  1.951563677829368E-016
  0.000000000000000E+000  0.250000000000000       0.000000000000000E+000
  0.000000000000000E+000
  0.124999992549419       0.250000000000000       6.335522441095004E-004
  4.205703305615322E-004
  0.249999985098839       0.250000000000000       1.709975267472642E-003
  1.235961815837071E-003
  0.374999970197678       0.250000000000000       2.621839954981747E-003
  1.931190367940859E-003
  0.499999970197678       0.250000000000000       2.992905390247587E-003
  2.197265624999984E-003
  0.624999940395355       0.250000000000000       2.688556606235079E-003
  1.931190736286175E-003
  0.749999940395355       0.250000000000000       1.821992091363754E-003
  1.235962306964196E-003
  0.874999940395355       0.250000000000000       7.386608487547561E-004
  4.205707173241965E-004
   1.00000000000000       0.250000000000000       0.000000000000000E+000
  0.000000000000000E+000
  0.000000000000000E+000  0.125000000000000       0.000000000000000E+000
  0.000000000000000E+000
  0.124999992549419       0.125000000000000       2.471238292748142E-004
  1.431107374827436E-004
  0.249999985098839       0.125000000000000       6.335523129089466E-004
  4.205703401112256E-004
  0.374999970197678       0.125000000000000       9.844345946326436E-004
  6.571411668687644E-004
  0.499999970197678       0.125000000000000       1.144516557638467E-003
  7.476806640624947E-004
  0.624999940395355       0.125000000000000       1.050539187939252E-003
  6.571412922084901E-004
  0.749999940395355       0.125000000000000       7.386605833130369E-004
  4.205705072308721E-004
  0.874999940395355       0.125000000000000       3.512967483162213E-004
  1.431108690894835E-004
  0.999999940395355       0.125000000000000       4.250072009495067E-017
  4.250072009495067E-017
  0.000000000000000E+000  0.000000000000000E+000  0.000000000000000E+000
  0.000000000000000E+000
  0.124999992549419       0.000000000000000E+000  0.000000000000000E+000
  0.000000000000000E+000
  0.249999985098839       0.000000000000000E+000  0.000000000000000E+000
  0.000000000000000E+000
  0.374999970197678       0.000000000000000E+000  0.000000000000000E+000
  0.000000000000000E+000
  0.499999970197678       0.000000000000000E+000  0.000000000000000E+000
  0.000000000000000E+000
  0.624999940395355       0.000000000000000E+000  0.000000000000000E+000
  0.000000000000000E+000
  0.749999940395355       0.000000000000000E+000  0.000000000000000E+000
  0.000000000000000E+000
  0.874999940395355       0.000000000000000E+000  0.000000000000000E+000
  0.000000000000000E+000
   1.00000000000000       0.000000000000000E+000  0.000000000000000E+000
  0.000000000000000E+000
           1          10           2
          11           2          10
           2          11           3
          12           3          11
           3          12           4
          13           4          12
           4          13           5
          14           5          13
           5          14           6
          15           6          14
           6          15           7
          16           7          15
           7          16           8
          17           8          16
           8          17           9
          18           9          17
          10          19          11
          20          11          19
          11          20          12
          21          12          20
          12          21          13
          22          13          21
          13          22          14
          23          14          22
          14          23          15
          24          15          23
          15          24          16
          25          16          24
          16          25          17
          26          17          25
          17          26          18
          27          18          26
          19          28          20
          29          20          28
          20          29          21
          30          21          29
          21          30          22
          31          22          30
          22          31          23
          32          23          31
          23          32          24
          33          24          32
          24          33          25
          34          25          33
          25          34          26
          35          26          34
          26          35          27
          36          27          35
          28          37          29
          38          29          37
          29          38          30
          39          30          38
          30          39          31
          40          31          39
          31          40          32
          41          32          40
          32          41          33
          42          33          41
          33          42          34
          43          34          42
          34          43          35
          44          35          43
          35          44          36
          45          36          44
          37          46          38
          47          38          46
          38          47          39
          48          39          47
          39          48          40
          49          40          48
          40          49          41
          50          41          49
          41          50          42
          51          42          50
          42          51          43
          52          43          51
          43          52          44
          53          44          52
          44          53          45
          54          45          53
          46          55          47
          56          47          55
          47          56          48
          57          48          56
          48          57          49
          58          49          57
          49          58          50
          59          50          58
          50          59          51
          60          51          59
          51          60          52
          61          52          60
          52          61          53
          62          53          61
          53          62          54
          63          54          62
          55          64          56
          65          56          64
          56          65          57
          66          57          65
          57          66          58
          67          58          66
          58          67          59
          68          59          67
          59          68          60
          69          60          68
          60          69          61
          70          61          69
          61          70          62
          71          62          70
          62          71          63
          72          63          71
          64          73          65
          74          65          73
          65          74          66
          75          66          74
          66          75          67
          76          67          75
          67          76          68
          77          68          76
          68          77          69
          78          69          77
          69          78          70
          79          70          78
          70          79          71
          80          71          79
          71          80          72
          81          72          80
